<?xml version="1.0" encoding="UTF-8"?>

<!-- generated on 2026-06-11 18:50:28 by Eclipse SUMO sumo Version 1.18.0
<configuration xmlns:xsi="http://www.w3.org/2001/XMLSchema-instance" xsi:noNamespaceSchemaLocation="http://sumo.dlr.de/xsd/sumoConfiguration.xsd">

    <input>
        <net-file value="map.net.xml"/>
        <route-files value="map.rou.xml"/>
    </input>

    <output>
        <fcd-output value="fcd.xml"/>
    </output>

</configuration>
-->

<fcd-export xmlns:xsi="http://www.w3.org/2001/XMLSchema-instance" xsi:noNamespaceSchemaLocation="http://sumo.dlr.de/xsd/fcd_file.xsd">
    <timestep time="0.00"/>
    <timestep time="1.00"/>
    <timestep time="2.00">
        <vehicle id="2" x="1080.98" y="737.03" angle="281.90" type="DEFAULT_VEHTYPE" speed="0.00" pos="5.10" lane="469129696#4_0" slope="0.00"/>
    </timestep>
    <timestep time="3.00">
        <vehicle id="2" x="1079.26" y="737.39" angle="281.90" type="DEFAULT_VEHTYPE" speed="1.75" pos="6.85" lane="469129696#4_0" slope="0.00"/>
    </timestep>
    <timestep time="4.00">
        <vehicle id="2" x="1075.38" y="738.21" angle="281.90" type="DEFAULT_VEHTYPE" speed="3.97" pos="10.82" lane="469129696#4_0" slope="0.00"/>
    </timestep>
    <timestep time="5.00">
        <vehicle id="2" x="1069.85" y="739.38" angle="281.90" type="DEFAULT_VEHTYPE" speed="5.65" pos="16.47" lane="469129696#4_0" slope="0.00"/>
    </timestep>
    <timestep time="6.00">
        <vehicle id="2" x="1062.31" y="740.97" angle="281.90" type="DEFAULT_VEHTYPE" speed="7.71" pos="24.18" lane="469129696#4_0" slope="0.00"/>
        <vehicle id="6" x="1017.97" y="932.98" angle="117.27" type="DEFAULT_VEHTYPE" speed="0.00" pos="5.10" lane="-172242508#12_0" slope="0.00"/>
    </timestep>
    <timestep time="7.00">
        <vehicle id="2" x="1053.01" y="742.93" angle="281.90" type="DEFAULT_VEHTYPE" speed="9.50" pos="33.68" lane="469129696#4_0" slope="0.00"/>
        <vehicle id="6" x="1019.94" y="931.97" angle="117.27" type="DEFAULT_VEHTYPE" speed="2.22" pos="7.32" lane="-172242508#12_0" slope="0.00"/>
        <vehicle id="7" x="1479.66" y="1209.30" angle="308.68" type="DEFAULT_VEHTYPE" speed="0.00" pos="5.10" lane="469125592#0_0" slope="0.00"/>
    </timestep>
    <timestep time="8.00">
        <vehicle id="2" x="1042.29" y="745.19" angle="281.90" type="DEFAULT_VEHTYPE" speed="10.96" pos="44.64" lane="469129696#4_0" slope="0.00"/>
        <vehicle id="6" x="1024.15" y="929.80" angle="117.27" type="DEFAULT_VEHTYPE" speed="4.73" pos="12.05" lane="-172242508#12_0" slope="0.00"/>
        <vehicle id="7" x="1478.58" y="1210.16" angle="308.68" type="DEFAULT_VEHTYPE" speed="1.38" pos="6.48" lane="469125592#0_0" slope="0.00"/>
    </timestep>
    <timestep time="9.00">
        <vehicle id="2" x="1029.82" y="747.82" angle="281.90" type="DEFAULT_VEHTYPE" speed="12.74" pos="57.38" lane="469129696#4_0" slope="0.00"/>
        <vehicle id="6" x="1030.43" y="926.56" angle="117.27" type="DEFAULT_VEHTYPE" speed="7.07" pos="19.12" lane="-172242508#12_0" slope="0.00"/>
        <vehicle id="7" x="1476.18" y="1212.08" angle="308.68" type="DEFAULT_VEHTYPE" speed="3.07" pos="9.55" lane="469125592#0_0" slope="0.00"/>
        <vehicle id="9" x="607.40" y="1178.26" angle="315.05" type="DEFAULT_VEHTYPE" speed="0.00" pos="5.10" lane="595139581#1_0" slope="0.00"/>
    </timestep>
    <timestep time="10.00">
        <vehicle id="10" x="666.00" y="1120.25" angle="314.66" type="DEFAULT_VEHTYPE" speed="0.00" pos="5.10" lane="595139581#0_0" slope="0.00"/>
        <vehicle id="2" x="1015.44" y="750.85" angle="281.90" type="DEFAULT_VEHTYPE" speed="14.69" pos="72.08" lane="469129696#4_0" slope="0.00"/>
        <vehicle id="6" x="1038.75" y="922.28" angle="117.27" type="DEFAULT_VEHTYPE" speed="9.36" pos="28.47" lane="-172242508#12_0" slope="0.00"/>
        <vehicle id="7" x="1472.45" y="1215.07" angle="308.68" type="DEFAULT_VEHTYPE" speed="4.79" pos="14.34" lane="469125592#0_0" slope="0.00"/>
        <vehicle id="9" x="605.97" y="1179.69" angle="315.05" type="DEFAULT_VEHTYPE" speed="2.01" pos="7.11" lane="595139581#1_0" slope="0.00"/>
    </timestep>
    <timestep time="11.00">
        <vehicle id="10" x="664.78" y="1121.46" angle="314.66" type="DEFAULT_VEHTYPE" speed="1.71" pos="6.81" lane="595139581#0_0" slope="0.00"/>
        <vehicle id="11" x="1498.63" y="1206.17" angle="51.38" type="DEFAULT_VEHTYPE" speed="0.00" pos="5.10" lane="-653567184#1_0" slope="0.00"/>
        <vehicle id="2" x="999.41" y="754.23" angle="281.90" type="DEFAULT_VEHTYPE" speed="16.38" pos="88.46" lane="469129696#4_0" slope="0.00"/>
        <vehicle id="6" x="1049.14" y="916.92" angle="117.27" type="DEFAULT_VEHTYPE" speed="11.69" pos="40.16" lane="-172242508#12_0" slope="0.00"/>
        <vehicle id="7" x="1467.24" y="1219.24" angle="308.68" type="DEFAULT_VEHTYPE" speed="6.67" pos="21.01" lane="469125592#0_0" slope="0.00"/>
        <vehicle id="9" x="603.26" y="1182.40" angle="315.05" type="DEFAULT_VEHTYPE" speed="3.84" pos="10.95" lane="595139581#1_0" slope="0.00"/>
    </timestep>
    <timestep time="12.00">
        <vehicle id="10" x="662.00" y="1124.21" angle="314.66" type="DEFAULT_VEHTYPE" speed="3.91" pos="10.72" lane="595139581#0_0" slope="0.00"/>
        <vehicle id="11" x="1500.39" y="1207.58" angle="51.38" type="DEFAULT_VEHTYPE" speed="2.25" pos="7.35" lane="-653567184#1_0" slope="0.00"/>
        <vehicle id="12" x="1453.12" y="1018.99" angle="178.67" type="DEFAULT_VEHTYPE" speed="0.00" pos="5.10" lane="653567184#4_0" slope="0.00"/>
        <vehicle id="2" x="985.59" y="757.14" angle="281.90" type="DEFAULT_VEHTYPE" speed="14.13" pos="102.59" lane="469129696#4_0" slope="0.00"/>
        <vehicle id="6" x="1061.12" y="910.70" angle="117.69" type="DEFAULT_VEHTYPE" speed="13.50" pos="1.10" lane=":7176667153_12_0" slope="0.00"/>
        <vehicle id="7" x="1460.92" y="1224.29" angle="308.68" type="DEFAULT_VEHTYPE" speed="8.09" pos="29.10" lane="469125592#0_0" slope="0.00"/>
        <vehicle id="9" x="599.47" y="1186.20" angle="315.05" type="DEFAULT_VEHTYPE" speed="5.37" pos="16.32" lane="595139581#1_0" slope="0.00"/>
    </timestep>
    <timestep time="13.00">
        <vehicle id="10" x="658.19" y="1127.97" angle="314.66" type="DEFAULT_VEHTYPE" speed="5.36" pos="16.08" lane="595139581#0_0" slope="0.00"/>
        <vehicle id="11" x="1503.60" y="1210.14" angle="51.38" type="DEFAULT_VEHTYPE" speed="4.11" pos="11.46" lane="-653567184#1_0" slope="0.00"/>
        <vehicle id="12" x="1453.15" y="1017.67" angle="178.67" type="DEFAULT_VEHTYPE" speed="1.32" pos="6.42" lane="653567184#4_0" slope="0.00"/>
        <vehicle id="13" x="1184.43" y="1133.25" angle="98.34" type="DEFAULT_VEHTYPE" speed="0.00" pos="5.10" lane="-469125603#2_0" slope="0.00"/>
        <vehicle id="2" x="975.28" y="759.31" angle="281.90" type="DEFAULT_VEHTYPE" speed="10.53" pos="113.11" lane="469129696#4_0" slope="0.00"/>
        <vehicle id="6" x="1074.03" y="903.27" angle="121.00" type="DEFAULT_VEHTYPE" speed="14.90" pos="5.91" lane="-172242508#11_0" slope="0.00"/>
        <vehicle id="7" x="1452.97" y="1230.66" angle="308.68" type="DEFAULT_VEHTYPE" speed="10.19" pos="39.29" lane="469125592#0_0" slope="0.00"/>
        <vehicle id="9" x="593.96" y="1191.72" angle="315.05" type="DEFAULT_VEHTYPE" speed="7.80" pos="24.12" lane="595139581#1_0" slope="0.00"/>
    </timestep>
    <timestep time="14.00">
        <vehicle id="10" x="653.37" y="1132.73" angle="314.66" type="DEFAULT_VEHTYPE" speed="6.78" pos="22.86" lane="595139581#0_0" slope="0.00"/>
        <vehicle id="11" x="1508.34" y="1213.93" angle="51.38" type="DEFAULT_VEHTYPE" speed="6.06" pos="17.52" lane="-653567184#1_0" slope="0.00"/>
        <vehicle id="12" x="1453.22" y="1014.48" angle="178.67" type="DEFAULT_VEHTYPE" speed="3.20" pos="9.62" lane="653567184#4_0" slope="0.00"/>
        <vehicle id="13" x="1186.76" y="1132.91" angle="98.34" type="DEFAULT_VEHTYPE" speed="2.36" pos="7.46" lane="-469125603#2_0" slope="0.00"/>
        <vehicle id="2" x="969.38" y="760.55" angle="281.90" type="DEFAULT_VEHTYPE" speed="6.03" pos="119.14" lane="469129696#4_0" slope="0.00"/>
        <vehicle id="6" x="1088.96" y="894.30" angle="121.00" type="DEFAULT_VEHTYPE" speed="17.42" pos="23.34" lane="-172242508#11_0" slope="0.00"/>
        <vehicle id="7" x="1443.06" y="1238.59" angle="308.68" type="DEFAULT_VEHTYPE" speed="12.69" pos="51.98" lane="469125592#0_0" slope="0.00"/>
        <vehicle id="9" x="587.43" y="1198.26" angle="315.05" type="DEFAULT_VEHTYPE" speed="9.24" pos="33.36" lane="595139581#1_0" slope="0.00"/>
    </timestep>
    <timestep time="15.00">
        <vehicle id="10" x="646.73" y="1139.30" angle="314.66" type="DEFAULT_VEHTYPE" speed="9.35" pos="32.20" lane="595139581#0_0" slope="0.00"/>
        <vehicle id="11" x="1515.10" y="1219.32" angle="51.38" type="DEFAULT_VEHTYPE" speed="8.65" pos="26.17" lane="-653567184#1_0" slope="0.00"/>
        <vehicle id="12" x="1453.34" y="1009.26" angle="178.67" type="DEFAULT_VEHTYPE" speed="5.22" pos="14.84" lane="653567184#4_0" slope="0.00"/>
        <vehicle id="13" x="1190.45" y="1132.37" angle="98.34" type="DEFAULT_VEHTYPE" speed="3.72" pos="11.19" lane="-469125603#2_0" slope="0.00"/>
        <vehicle id="15" x="607.40" y="1178.26" angle="315.05" type="DEFAULT_VEHTYPE" speed="0.00" pos="5.10" lane="595139581#1_0" slope="0.00"/>
        <vehicle id="2" x="965.85" y="760.07" angle="267.00" type="DEFAULT_VEHTYPE" speed="3.85" pos="1.89" lane=":4738684382_2_0" slope="0.00"/>
        <vehicle id="6" x="1105.29" y="884.48" angle="121.00" type="DEFAULT_VEHTYPE" speed="19.05" pos="42.39" lane="-172242508#11_0" slope="0.00"/>
        <vehicle id="7" x="1432.02" y="1245.24" angle="288.45" type="DEFAULT_VEHTYPE" speed="13.13" pos="65.11" lane="469125592#0_0" slope="0.00"/>
        <vehicle id="9" x="579.66" y="1206.05" angle="315.05" type="DEFAULT_VEHTYPE" speed="11.00" pos="44.36" lane="595139581#1_0" slope="0.00"/>
    </timestep>
    <timestep time="16.00">
        <vehicle id="10" x="638.28" y="1147.65" angle="314.66" type="DEFAULT_VEHTYPE" speed="11.87" pos="44.07" lane="595139581#0_0" slope="0.00"/>
        <vehicle id="11" x="1523.07" y="1225.69" angle="51.38" type="DEFAULT_VEHTYPE" speed="10.20" pos="36.37" lane="-653567184#1_0" slope="0.00"/>
        <vehicle id="12" x="1453.50" y="1002.36" angle="178.67" type="DEFAULT_VEHTYPE" speed="6.90" pos="21.74" lane="653567184#4_0" slope="0.00"/>
        <vehicle id="13" x="1195.74" y="1131.59" angle="98.34" type="DEFAULT_VEHTYPE" speed="5.34" pos="16.53" lane="-469125603#2_0" slope="0.00"/>
        <vehicle id="15" x="606.04" y="1179.62" angle="315.05" type="DEFAULT_VEHTYPE" speed="1.92" pos="7.02" lane="595139581#1_0" slope="0.00"/>
        <vehicle id="16" x="1144.46" y="1804.85" angle="196.84" type="DEFAULT_VEHTYPE" speed="0.00" pos="5.10" lane="143910601#2_0" slope="0.00"/>
        <vehicle id="2" x="967.00" y="757.79" angle="190.65" type="DEFAULT_VEHTYPE" speed="2.98" pos="0.20" lane="-469129696#4_0" slope="0.00"/>
        <vehicle id="6" x="1122.30" y="874.35" angle="120.17" type="DEFAULT_VEHTYPE" speed="19.80" pos="62.19" lane="-172242508#11_0" slope="0.00"/>
        <vehicle id="7" x="1419.69" y="1248.46" angle="284.63" type="DEFAULT_VEHTYPE" speed="12.75" pos="77.86" lane="469125592#0_0" slope="0.00"/>
        <vehicle id="9" x="570.88" y="1214.85" angle="315.05" type="DEFAULT_VEHTYPE" speed="12.43" pos="56.80" lane="595139581#1_0" slope="0.00"/>
    </timestep>
    <timestep time="17.00">
        <vehicle id="10" x="628.93" y="1156.89" angle="314.66" type="DEFAULT_VEHTYPE" speed="13.15" pos="57.22" lane="595139581#0_0" slope="0.00"/>
        <vehicle id="11" x="1531.15" y="1232.15" angle="51.38" type="DEFAULT_VEHTYPE" speed="10.34" pos="46.71" lane="-653567184#1_0" slope="0.00"/>
        <vehicle id="12" x="1453.72" y="993.17" angle="178.67" type="DEFAULT_VEHTYPE" speed="9.19" pos="30.93" lane="653567184#4_0" slope="0.00"/>
        <vehicle id="13" x="1202.73" y="1130.57" angle="98.34" type="DEFAULT_VEHTYPE" speed="7.07" pos="23.60" lane="-469125603#2_0" slope="0.00"/>
        <vehicle id="15" x="603.60" y="1182.07" angle="315.05" type="DEFAULT_VEHTYPE" speed="3.45" pos="10.48" lane="595139581#1_0" slope="0.00"/>
        <vehicle id="16" x="1143.73" y="1802.44" angle="196.84" type="DEFAULT_VEHTYPE" speed="2.51" pos="7.61" lane="143910601#2_0" slope="0.00"/>
        <vehicle id="17" x="1223.38" y="3.73" angle="28.23" type="DEFAULT_VEHTYPE" speed="0.00" pos="5.10" lane="-653567184#14_0" slope="0.00"/>
        <vehicle id="2" x="972.24" y="756.68" angle="101.90" type="DEFAULT_VEHTYPE" speed="5.36" pos="5.56" lane="-469129696#4_0" slope="0.00"/>
        <vehicle id="6" x="1140.84" y="864.98" angle="116.82" type="DEFAULT_VEHTYPE" speed="20.78" pos="82.97" lane="-172242508#11_0" slope="0.00"/>
        <vehicle id="7" x="1406.27" y="1251.96" angle="284.63" type="DEFAULT_VEHTYPE" speed="13.86" pos="91.72" lane="469125592#0_0" slope="0.00"/>
        <vehicle id="9" x="560.57" y="1225.17" angle="315.05" type="DEFAULT_VEHTYPE" speed="14.59" pos="71.38" lane="595139581#1_0" slope="0.00"/>
    </timestep>
    <timestep time="18.00">
        <vehicle id="10" x="619.79" y="1165.93" angle="314.66" type="DEFAULT_VEHTYPE" speed="12.86" pos="70.08" lane="595139581#0_0" slope="0.00"/>
        <vehicle id="11" x="1539.23" y="1238.60" angle="51.38" type="DEFAULT_VEHTYPE" speed="10.34" pos="57.06" lane="-653567184#1_0" slope="0.00"/>
        <vehicle id="12" x="1453.98" y="981.81" angle="178.67" type="DEFAULT_VEHTYPE" speed="11.36" pos="42.29" lane="653567184#4_0" slope="0.00"/>
        <vehicle id="13" x="1211.45" y="1129.29" angle="98.34" type="DEFAULT_VEHTYPE" speed="8.81" pos="32.41" lane="-469125603#2_0" slope="0.00"/>
        <vehicle id="15" x="599.54" y="1186.13" angle="315.05" type="DEFAULT_VEHTYPE" speed="5.74" pos="16.22" lane="595139581#1_0" slope="0.00"/>
        <vehicle id="16" x="1142.38" y="1797.98" angle="196.84" type="DEFAULT_VEHTYPE" speed="4.66" pos="12.27" lane="143910601#2_0" slope="0.00"/>
        <vehicle id="17" x="1224.55" y="5.91" angle="28.23" type="DEFAULT_VEHTYPE" speed="2.47" pos="7.57" lane="-653567184#14_0" slope="0.00"/>
        <vehicle id="2" x="979.33" y="755.19" angle="101.90" type="DEFAULT_VEHTYPE" speed="7.25" pos="12.81" lane="-469129696#4_0" slope="0.00"/>
        <vehicle id="6" x="1158.56" y="856.02" angle="116.82" type="DEFAULT_VEHTYPE" speed="19.86" pos="102.83" lane="-172242508#11_0" slope="0.00"/>
        <vehicle id="7" x="1393.08" y="1255.40" angle="284.63" type="DEFAULT_VEHTYPE" speed="13.63" pos="105.36" lane="469125592#0_0" slope="0.00"/>
        <vehicle id="9" x="550.75" y="1235.02" angle="315.05" type="DEFAULT_VEHTYPE" speed="13.91" pos="85.29" lane="595139581#1_0" slope="0.00"/>
    </timestep>
    <timestep time="19.00">
        <vehicle id="10" x="611.59" y="1174.06" angle="314.83" type="DEFAULT_VEHTYPE" speed="11.54" pos="8.72" lane=":6280677233_5_0" slope="0.00"/>
        <vehicle id="11" x="1548.83" y="1244.04" angle="62.42" type="DEFAULT_VEHTYPE" speed="11.07" pos="68.12" lane="-653567184#1_0" slope="0.00"/>
        <vehicle id="12" x="1454.30" y="967.97" angle="178.67" type="DEFAULT_VEHTYPE" speed="13.84" pos="56.14" lane="653567184#4_0" slope="0.00"/>
        <vehicle id="13" x="1222.40" y="1127.68" angle="98.34" type="DEFAULT_VEHTYPE" speed="11.08" pos="43.48" lane="-469125603#2_0" slope="0.00"/>
        <vehicle id="15" x="593.85" y="1191.83" angle="315.05" type="DEFAULT_VEHTYPE" speed="8.06" pos="24.28" lane="595139581#1_0" slope="0.00"/>
        <vehicle id="16" x="1140.63" y="1792.20" angle="196.84" type="DEFAULT_VEHTYPE" speed="6.04" pos="18.30" lane="143910601#2_0" slope="0.00"/>
        <vehicle id="17" x="1226.44" y="9.42" angle="28.23" type="DEFAULT_VEHTYPE" speed="3.99" pos="11.55" lane="-653567184#14_0" slope="0.00"/>
        <vehicle id="2" x="988.45" y="753.27" angle="101.90" type="DEFAULT_VEHTYPE" speed="9.32" pos="22.13" lane="-469129696#4_0" slope="0.00"/>
        <vehicle id="6" x="1177.27" y="848.73" angle="108.35" type="DEFAULT_VEHTYPE" speed="20.13" pos="0.37" lane=":cluster_7176667149_9463069969_9463069970_13_0" slope="0.00"/>
        <vehicle id="7" x="1379.91" y="1257.48" angle="278.92" type="DEFAULT_VEHTYPE" speed="13.33" pos="118.68" lane="469125592#0_0" slope="0.00"/>
        <vehicle id="9" x="540.52" y="1245.26" angle="315.05" type="DEFAULT_VEHTYPE" speed="14.47" pos="99.76" lane="595139581#1_0" slope="0.00"/>
    </timestep>
    <timestep time="20.00">
        <vehicle id="10" x="604.31" y="1181.35" angle="315.05" type="DEFAULT_VEHTYPE" speed="10.30" pos="9.46" lane="595139581#1_0" slope="0.00"/>
        <vehicle id="11" x="1558.67" y="1249.18" angle="62.42" type="DEFAULT_VEHTYPE" speed="11.10" pos="79.22" lane="-653567184#1_0" slope="0.00"/>
        <vehicle id="12" x="1454.62" y="954.32" angle="178.67" type="DEFAULT_VEHTYPE" speed="13.65" pos="69.79" lane="653567184#4_0" slope="0.00"/>
        <vehicle id="13" x="1234.04" y="1125.97" angle="98.34" type="DEFAULT_VEHTYPE" speed="11.76" pos="55.24" lane="-469125603#2_0" slope="0.00"/>
        <vehicle id="15" x="586.90" y="1198.80" angle="315.05" type="DEFAULT_VEHTYPE" speed="9.84" pos="34.12" lane="595139581#1_0" slope="0.00"/>
        <vehicle id="16" x="1138.19" y="1784.14" angle="196.84" type="DEFAULT_VEHTYPE" speed="8.42" pos="26.72" lane="143910601#2_0" slope="0.00"/>
        <vehicle id="17" x="1229.29" y="14.74" angle="28.23" type="DEFAULT_VEHTYPE" speed="6.04" pos="17.60" lane="-653567184#14_0" slope="0.00"/>
        <vehicle id="2" x="999.05" y="751.03" angle="101.90" type="DEFAULT_VEHTYPE" speed="10.83" pos="32.96" lane="-469129696#4_0" slope="0.00"/>
        <vehicle id="20" x="1165.63" y="1079.45" angle="182.94" type="DEFAULT_VEHTYPE" speed="0.00" pos="5.10" lane="469125604#1_0" slope="0.00"/>
        <vehicle id="6" x="1196.70" y="842.88" angle="105.71" type="DEFAULT_VEHTYPE" speed="20.29" pos="20.66" lane=":cluster_7176667149_9463069969_9463069970_13_0" slope="0.00"/>
        <vehicle id="7" x="1366.68" y="1259.56" angle="278.92" type="DEFAULT_VEHTYPE" speed="13.39" pos="132.07" lane="469125592#0_0" slope="0.00"/>
        <vehicle id="9" x="530.80" y="1255.00" angle="315.05" type="DEFAULT_VEHTYPE" speed="13.77" pos="113.53" lane="595139581#1_0" slope="0.00"/>
    </timestep>
    <timestep time="21.00">
        <vehicle id="10" x="596.42" y="1189.26" angle="315.05" type="DEFAULT_VEHTYPE" speed="11.17" pos="20.64" lane="595139581#1_0" slope="0.00"/>
        <vehicle id="11" x="1568.29" y="1253.55" angle="68.80" type="DEFAULT_VEHTYPE" speed="10.58" pos="89.80" lane="-653567184#1_0" slope="0.00"/>
        <vehicle id="12" x="1454.47" y="940.21" angle="180.63" type="DEFAULT_VEHTYPE" speed="14.11" pos="0.04" lane="653567184#5_0" slope="0.00"/>
        <vehicle id="13" x="1245.94" y="1124.21" angle="98.61" type="DEFAULT_VEHTYPE" speed="12.03" pos="2.70" lane=":4635239733_6_0" slope="0.00"/>
        <vehicle id="15" x="578.82" y="1206.89" angle="315.05" type="DEFAULT_VEHTYPE" speed="11.43" pos="45.55" lane="595139581#1_0" slope="0.00"/>
        <vehicle id="16" x="1135.87" y="1774.44" angle="193.33" type="DEFAULT_VEHTYPE" speed="9.96" pos="36.69" lane="143910601#2_0" slope="0.00"/>
        <vehicle id="17" x="1233.08" y="21.79" angle="28.23" type="DEFAULT_VEHTYPE" speed="8.00" pos="25.60" lane="-653567184#14_0" slope="0.00"/>
        <vehicle id="2" x="1011.20" y="748.47" angle="101.90" type="DEFAULT_VEHTYPE" speed="12.42" pos="45.37" lane="-469129696#4_0" slope="0.00"/>
        <vehicle id="20" x="1165.52" y="1077.32" angle="182.94" type="DEFAULT_VEHTYPE" speed="2.13" pos="7.23" lane="469125604#1_0" slope="0.00"/>
        <vehicle id="21" x="129.21" y="2459.29" angle="235.23" type="DEFAULT_VEHTYPE" speed="0.00" pos="5.10" lane="-595139581#4_0" slope="0.00"/>
        <vehicle id="6" x="1216.04" y="838.72" angle="101.66" type="DEFAULT_VEHTYPE" speed="19.89" pos="3.78" lane="-172242508#8_0" slope="0.00"/>
        <vehicle id="7" x="1353.56" y="1261.61" angle="278.92" type="DEFAULT_VEHTYPE" speed="13.28" pos="145.36" lane="469125592#0_0" slope="0.00"/>
        <vehicle id="9" x="521.00" y="1265.47" angle="316.96" type="DEFAULT_VEHTYPE" speed="14.34" pos="127.87" lane="595139581#1_0" slope="0.00"/>
    </timestep>
    <timestep time="22.00">
        <vehicle id="10" x="587.48" y="1198.21" angle="315.05" type="DEFAULT_VEHTYPE" speed="12.66" pos="33.29" lane="595139581#1_0" slope="0.00"/>
        <vehicle id="11" x="1577.85" y="1257.26" angle="68.80" type="DEFAULT_VEHTYPE" speed="10.26" pos="100.06" lane="-653567184#1_0" slope="0.00"/>
        <vehicle id="12" x="1453.81" y="925.78" angle="182.59" type="DEFAULT_VEHTYPE" speed="14.45" pos="14.49" lane="653567184#5_0" slope="0.00"/>
        <vehicle id="13" x="1258.06" y="1122.32" angle="98.89" type="DEFAULT_VEHTYPE" speed="12.26" pos="0.70" lane="-469125603#1_0" slope="0.00"/>
        <vehicle id="15" x="570.19" y="1215.54" angle="315.05" type="DEFAULT_VEHTYPE" speed="12.22" pos="57.77" lane="595139581#1_0" slope="0.00"/>
        <vehicle id="16" x="1133.15" y="1762.99" angle="193.33" type="DEFAULT_VEHTYPE" speed="11.76" pos="48.45" lane="143910601#2_0" slope="0.00"/>
        <vehicle id="17" x="1237.83" y="30.64" angle="28.23" type="DEFAULT_VEHTYPE" speed="10.04" pos="35.64" lane="-653567184#14_0" slope="0.00"/>
        <vehicle id="2" x="1025.08" y="745.55" angle="101.90" type="DEFAULT_VEHTYPE" speed="14.19" pos="59.56" lane="-469129696#4_0" slope="0.00"/>
        <vehicle id="20" x="1165.32" y="1073.44" angle="182.94" type="DEFAULT_VEHTYPE" speed="3.89" pos="11.12" lane="469125604#1_0" slope="0.00"/>
        <vehicle id="21" x="127.78" y="2458.29" angle="235.23" type="DEFAULT_VEHTYPE" speed="1.75" pos="6.85" lane="-595139581#4_0" slope="0.00"/>
        <vehicle id="22" x="1497.56" y="948.82" angle="269.90" type="DEFAULT_VEHTYPE" speed="0.00" pos="5.10" lane="-469125600_0" slope="0.00"/>
        <vehicle id="6" x="1235.40" y="834.72" angle="101.67" type="DEFAULT_VEHTYPE" speed="19.76" pos="23.54" lane="-172242508#8_0" slope="0.00"/>
        <vehicle id="7" x="1340.83" y="1263.60" angle="278.79" type="DEFAULT_VEHTYPE" speed="12.88" pos="158.24" lane="469125592#0_0" slope="0.00"/>
        <vehicle id="9" x="510.86" y="1276.32" angle="316.96" type="DEFAULT_VEHTYPE" speed="14.85" pos="142.72" lane="595139581#1_0" slope="0.00"/>
    </timestep>
    <timestep time="23.00">
        <vehicle id="10" x="578.15" y="1207.56" angle="315.05" type="DEFAULT_VEHTYPE" speed="13.20" pos="46.50" lane="595139581#1_0" slope="0.00"/>
        <vehicle id="11" x="1588.39" y="1261.35" angle="68.80" type="DEFAULT_VEHTYPE" speed="11.31" pos="111.37" lane="-653567184#1_0" slope="0.00"/>
        <vehicle id="12" x="1453.25" y="913.39" angle="182.59" type="DEFAULT_VEHTYPE" speed="12.39" pos="26.88" lane="653567184#5_0" slope="0.00"/>
        <vehicle id="13" x="1269.75" y="1120.41" angle="99.25" type="DEFAULT_VEHTYPE" speed="11.85" pos="12.55" lane="-469125603#1_0" slope="0.00"/>
        <vehicle id="15" x="561.53" y="1224.21" angle="315.05" type="DEFAULT_VEHTYPE" speed="12.25" pos="70.03" lane="595139581#1_0" slope="0.00"/>
        <vehicle id="16" x="1129.98" y="1749.59" angle="193.33" type="DEFAULT_VEHTYPE" speed="13.76" pos="62.21" lane="143910601#2_0" slope="0.00"/>
        <vehicle id="17" x="1243.38" y="40.98" angle="28.23" type="DEFAULT_VEHTYPE" speed="11.74" pos="47.38" lane="-653567184#14_0" slope="0.00"/>
        <vehicle id="2" x="1040.35" y="742.33" angle="101.90" type="DEFAULT_VEHTYPE" speed="15.61" pos="75.17" lane="-469129696#4_0" slope="0.00"/>
        <vehicle id="20" x="1165.00" y="1067.22" angle="182.94" type="DEFAULT_VEHTYPE" speed="6.22" pos="17.34" lane="469125604#1_0" slope="0.00"/>
        <vehicle id="21" x="125.14" y="2456.46" angle="235.23" type="DEFAULT_VEHTYPE" speed="3.21" pos="10.06" lane="-595139581#4_0" slope="0.00"/>
        <vehicle id="22" x="1495.23" y="948.82" angle="269.90" type="DEFAULT_VEHTYPE" speed="2.33" pos="7.43" lane="-469125600_0" slope="0.00"/>
        <vehicle id="23" x="1058.06" y="1124.15" angle="8.76" type="DEFAULT_VEHTYPE" speed="0.00" pos="5.10" lane="-469125603#3_0" slope="0.00"/>
        <vehicle id="6" x="1255.13" y="829.43" angle="105.07" type="DEFAULT_VEHTYPE" speed="20.43" pos="43.97" lane="-172242508#8_0" slope="0.00"/>
        <vehicle id="7" x="1327.33" y="1265.22" angle="277.50" type="DEFAULT_VEHTYPE" speed="13.60" pos="2.72" lane=":4658585839_0_0" slope="0.00"/>
        <vehicle id="9" x="500.66" y="1287.25" angle="316.96" type="DEFAULT_VEHTYPE" speed="14.95" pos="157.67" lane="595139581#1_0" slope="0.00"/>
    </timestep>
    <timestep time="24.00">
        <vehicle id="10" x="569.23" y="1216.50" angle="315.05" type="DEFAULT_VEHTYPE" speed="12.63" pos="59.13" lane="595139581#1_0" slope="0.00"/>
        <vehicle id="11" x="1598.57" y="1265.29" angle="68.80" type="DEFAULT_VEHTYPE" speed="10.92" pos="122.28" lane="-653567184#1_0" slope="0.00"/>
        <vehicle id="12" x="1452.90" y="905.51" angle="182.59" type="DEFAULT_VEHTYPE" speed="7.89" pos="34.78" lane="653567184#5_0" slope="0.00"/>
        <vehicle id="13" x="1280.72" y="1118.63" angle="99.25" type="DEFAULT_VEHTYPE" speed="11.11" pos="23.66" lane="-469125603#1_0" slope="0.00"/>
        <vehicle id="15" x="553.17" y="1232.59" angle="315.05" type="DEFAULT_VEHTYPE" speed="11.84" pos="81.86" lane="595139581#1_0" slope="0.00"/>
        <vehicle id="16" x="1126.37" y="1734.35" angle="193.33" type="DEFAULT_VEHTYPE" speed="15.64" pos="77.85" lane="143910601#2_0" slope="0.00"/>
        <vehicle id="17" x="1250.00" y="53.31" angle="28.23" type="DEFAULT_VEHTYPE" speed="14.00" pos="61.37" lane="-653567184#14_0" slope="0.00"/>
        <vehicle id="2" x="1057.29" y="738.76" angle="101.90" type="DEFAULT_VEHTYPE" speed="17.31" pos="92.48" lane="-469129696#4_0" slope="0.00"/>
        <vehicle id="20" x="1164.55" y="1058.43" angle="182.94" type="DEFAULT_VEHTYPE" speed="8.80" pos="26.14" lane="469125604#1_0" slope="0.00"/>
        <vehicle id="21" x="121.18" y="2452.75" angle="225.91" type="DEFAULT_VEHTYPE" speed="5.50" pos="15.56" lane="-595139581#4_0" slope="0.00"/>
        <vehicle id="22" x="1490.71" y="948.81" angle="269.90" type="DEFAULT_VEHTYPE" speed="4.52" pos="11.95" lane="-469125600_0" slope="0.00"/>
        <vehicle id="23" x="1058.44" y="1126.67" angle="8.76" type="DEFAULT_VEHTYPE" speed="2.55" pos="7.65" lane="-469125603#3_0" slope="0.00"/>
        <vehicle id="6" x="1275.12" y="824.04" angle="105.07" type="DEFAULT_VEHTYPE" speed="20.70" pos="64.67" lane="-172242508#8_0" slope="0.00"/>
        <vehicle id="7" x="1314.70" y="1267.29" angle="280.25" type="DEFAULT_VEHTYPE" speed="12.79" pos="6.42" lane="469125592#1_0" slope="0.00"/>
        <vehicle id="9" x="490.87" y="1297.73" angle="316.96" type="DEFAULT_VEHTYPE" speed="14.34" pos="172.01" lane="595139581#1_0" slope="0.00"/>
    </timestep>
    <timestep time="25.00">
        <vehicle id="10" x="560.76" y="1224.99" angle="315.05" type="DEFAULT_VEHTYPE" speed="12.00" pos="71.12" lane="595139581#1_0" slope="0.00"/>
        <vehicle id="11" x="1609.63" y="1267.31" angle="83.67" type="DEFAULT_VEHTYPE" speed="11.32" pos="133.60" lane="-653567184#1_0" slope="0.00"/>
        <vehicle id="12" x="1452.72" y="901.70" angle="182.59" type="DEFAULT_VEHTYPE" speed="3.81" pos="38.58" lane="653567184#5_0" slope="0.00"/>
        <vehicle id="13" x="1291.82" y="1116.82" angle="99.25" type="DEFAULT_VEHTYPE" speed="11.24" pos="34.91" lane="-469125603#1_0" slope="0.00"/>
        <vehicle id="15" x="544.81" y="1240.96" angle="315.05" type="DEFAULT_VEHTYPE" speed="11.83" pos="93.69" lane="595139581#1_0" slope="0.00"/>
        <vehicle id="16" x="1122.25" y="1716.94" angle="193.33" type="DEFAULT_VEHTYPE" speed="17.88" pos="95.73" lane="143910601#2_0" slope="0.00"/>
        <vehicle id="17" x="1256.60" y="65.61" angle="28.23" type="DEFAULT_VEHTYPE" speed="13.96" pos="75.33" lane="-653567184#14_0" slope="0.00"/>
        <vehicle id="2" x="1075.64" y="734.89" angle="101.90" type="DEFAULT_VEHTYPE" speed="18.75" pos="111.22" lane="-469129696#4_0" slope="0.00"/>
        <vehicle id="20" x="1159.89" y="1054.73" angle="293.58" type="DEFAULT_VEHTYPE" speed="10.62" pos="36.76" lane="469125604#1_0" slope="0.00"/>
        <vehicle id="21" x="116.46" y="2446.32" angle="216.29" type="DEFAULT_VEHTYPE" speed="7.97" pos="23.54" lane="-595139581#4_0" slope="0.00"/>
        <vehicle id="22" x="1484.25" y="948.80" angle="269.90" type="DEFAULT_VEHTYPE" speed="6.46" pos="18.41" lane="-469125600_0" slope="0.00"/>
        <vehicle id="23" x="1059.17" y="1131.37" angle="8.76" type="DEFAULT_VEHTYPE" speed="4.76" pos="12.41" lane="-469125603#3_0" slope="0.00"/>
        <vehicle id="25" x="1223.38" y="3.73" angle="28.23" type="DEFAULT_VEHTYPE" speed="0.00" pos="5.10" lane="-653567184#14_0" slope="0.00"/>
        <vehicle id="6" x="1294.65" y="818.79" angle="105.07" type="DEFAULT_VEHTYPE" speed="20.22" pos="84.89" lane="-172242508#8_0" slope="0.00"/>
        <vehicle id="7" x="1301.49" y="1269.68" angle="280.25" type="DEFAULT_VEHTYPE" speed="13.43" pos="19.85" lane="469125592#1_0" slope="0.00"/>
        <vehicle id="9" x="481.10" y="1308.20" angle="316.96" type="DEFAULT_VEHTYPE" speed="14.32" pos="186.33" lane="595139581#1_0" slope="0.00"/>
    </timestep>
    <timestep time="26.00">
        <vehicle id="10" x="552.35" y="1233.41" angle="315.05" type="DEFAULT_VEHTYPE" speed="11.89" pos="83.02" lane="595139581#1_0" slope="0.00"/>
        <vehicle id="11" x="1616.61" y="1268.09" angle="83.67" type="DEFAULT_VEHTYPE" speed="7.02" pos="140.62" lane="-653567184#1_0" slope="0.00"/>
        <vehicle id="12" x="1452.53" y="896.57" angle="182.15" type="DEFAULT_VEHTYPE" speed="5.14" pos="3.72" lane=":6271704381_1_0" slope="0.00"/>
        <vehicle id="13" x="1303.00" y="1115.00" angle="99.25" type="DEFAULT_VEHTYPE" speed="11.33" pos="46.24" lane="-469125603#1_0" slope="0.00"/>